# vtk DataFile Version 5.1
vtk output
ASCII
DATASET UNSTRUCTURED_GRID
POINTS 77 float
0 0 0 0 1 0 0 2 0 
0 3 0 0 4 0 0 5 0 
0 6 0 0 7 0 0 8 0 
0 9 0 0 10 0 0.5 10 0 
1 10 0 1 9 0 1 8 0 
1 7 0 1 6 0 1 5 0 
1 4 0 1 3 0 1 2 0 
1 1 0 1 0 0 0.5 0 0 
0.5 1 0 0.5 2 0 0.5 3 0 
0.5 4 0 0.5 5 0 0.5 6 0 
0.5 7 0 0.5 8 0 0.5 9 0 
20 0 0 20 1 0 20 2 0 
20 3 0 20 4 0 20 5 0 
20 6 0 20 7 0 20 8 0 
20 9 0 20 10 0 9 0 0 
9 1 0 9 2 0 9 3 0 
9 4 0 9 5 0 9 6 0 
9 7 0 9 8 0 9 9 0 
9 10 0 9.5 10 0 10 10 0 
10 9 0 10 8 0 10 7 0 
10 6 0 10 5 0 10 4 0 
10 3 0 10 2 0 10 1 0 
10 0 0 9.5 0 0 9.5 1 0 
9.5 2 0 9.5 3 0 9.5 4 0 
9.5 5 0 9.5 6 0 9.5 7 0 
9.5 8 0 9.5 9 0 
CELLS 71 220
OFFSETS vtktypeint64
0 4 8 12 16 20 24 28 32 
36 40 44 48 52 56 60 64 68 
72 76 80 82 84 86 88 90 92 
94 96 98 100 103 106 109 112 115 
118 121 124 127 130 133 136 139 142 
145 148 151 154 157 160 163 166 169 
172 175 178 181 184 187 190 193 196 
199 202 205 208 211 214 217 220 
CONNECTIVITY vtktypeint64
0 1 24 23 1 2 25 24 2 
3 26 25 3 4 27 26 4 5 
28 27 5 6 29 28 6 7 30 
29 7 8 31 30 8 9 32 31 
9 10 11 32 23 24 21 22 24 
25 20 21 25 26 19 20 26 27 
18 19 27 28 17 18 28 29 16 
17 29 30 15 16 30 31 14 15 
31 32 13 14 32 11 12 13 33 
34 34 35 35 36 36 37 37 38 
38 39 39 40 40 41 41 42 42 
43 44 45 67 45 68 67 45 46 
69 45 69 68 46 47 69 47 70 
69 47 48 71 47 71 70 48 49 
71 49 72 71 49 50 73 49 73 
72 50 51 73 51 74 73 51 52 
75 51 75 74 52 53 75 53 76 
75 53 54 55 53 55 76 67 68 
65 67 65 66 68 69 65 69 64 
65 69 70 63 69 63 64 70 71 
63 71 62 63 71 72 61 71 61 
62 72 73 61 73 60 61 73 74 
59 73 59 60 74 75 59 75 58 
59 75 76 57 75 57 58 76 55 
57 55 56 57 
CELL_TYPES 70
9
9
9
9
9
9
9
9
9
9
9
9
9
9
9
9
9
9
9
9
3
3
3
3
3
3
3
3
3
3
5
5
5
5
5
5
5
5
5
5
5
5
5
5
5
5
5
5
5
5
5
5
5
5
5
5
5
5
5
5
5
5
5
5
5
5
5
5
5
5

CELL_DATA 70
FIELD FieldData 1
ElementType 1 70 string
CQUAD4
CQUAD4
CQUAD4
CQUAD4
CQUAD4
CQUAD4
CQUAD4
CQUAD4
CQUAD4
CQUAD4
CQUAD4
CQUAD4
CQUAD4
CQUAD4
CQUAD4
CQUAD4
CQUAD4
CQUAD4
CQUAD4
CQUAD4
CBEAM
CBEAM
CBEAM
CBEAM
CBEAM
CBEAM
CBEAM
CBEAM
CBEAM
CBEAM
CTRIA3
CTRIA3
CTRIA3
CTRIA3
CTRIA3
CTRIA3
CTRIA3
CTRIA3
CTRIA3
CTRIA3
CTRIA3
CTRIA3
CTRIA3
CTRIA3
CTRIA3
CTRIA3
CTRIA3
CTRIA3
CTRIA3
CTRIA3
CTRIA3
CTRIA3
CTRIA3
CTRIA3
CTRIA3
CTRIA3
CTRIA3
CTRIA3
CTRIA3
CTRIA3
CTRIA3
CTRIA3
CTRIA3
CTRIA3
CTRIA3
CTRIA3
CTRIA3
CTRIA3
CTRIA3
CTRIA3

POINT_DATA 77
FIELD FieldData 7
CP 1 77 int
0 0 0 0 0 0 0 0 0 
0 0 0 0 0 0 0 0 0 
0 0 0 0 0 0 0 0 0 
0 0 0 0 0 0 0 0 0 
0 0 0 0 0 0 0 0 0 
0 0 0 0 0 0 0 0 0 
0 0 0 0 0 0 0 0 0 
0 0 0 0 0 0 0 0 0 
0 0 0 0 0 
Translation 3 77 float
0 0 0 4.55672e-05 0.000245772 0 3.63817e-05 0.00049057 0 
3.73805e-05 0.00074401 0 3.76767e-05 0.000992501 0 3.74083e-05 0.00124305 0 
3.75366e-05 0.00149287 0 3.74874e-05 0.00174293 0 3.75039e-05 0.00199291 0 
3.74989e-05 0.00224292 0 3.75006e-05 0.00249292 0 3.27025e-15 0.00249291 0 
-3.75006e-05 0.00249292 0 -3.74989e-05 0.00224292 0 -3.75039e-05 0.00199291 0 
-3.74874e-05 0.00174293 0 -3.75366e-05 0.00149287 0 -3.74083e-05 0.00124305 0 
-3.76767e-05 0.000992501 0 -3.73805e-05 0.00074401 0 -3.63817e-05 0.00049057 0 
-4.55672e-05 0.000245772 0 0 0 0 0 0 0 
5.58871e-17 0.000236568 0 2.16894e-16 0.00049594 0 4.61333e-16 0.000741758 0 
7.72928e-16 0.000993301 0 1.13572e-15 0.0012428 0 1.53542e-15 0.00149294 0 
1.95751e-15 0.00174291 0 2.39076e-15 0.00199292 0 2.82938e-15 0.00224292 0 
0 0 0 0 0.00025 0 0 0.0005 0 
0 0.00075 0 0 0.001 0 0 0.00125 0 
0 0.0015 0 0 0.00175 0 0 0.002 0 
0 0.00225 0 0 0.0025 0 0 0 0 
2.99244e-06 0.000151919 0.000987715 3.04427e-06 0.000304202 0.00395299 3.04548e-06 0.000456456 0.00889741 
3.0467e-06 0.000608707 0.0158211 3.04682e-06 0.000760956 0.0247239 3.0473e-06 0.000913205 0.0356061 
3.04765e-06 0.00106545 0.0484674 3.04809e-06 0.0012177 0.0633079 3.04853e-06 0.00136995 0.0801277 
3.04902e-06 0.0015222 0.0989267 4.06299e-09 0.0015222 0.0989267 -3.0409e-06 0.0015222 0.0989267 
-3.04138e-06 0.00136995 0.0801277 -3.04185e-06 0.0012177 0.0633079 -3.04223e-06 0.00106545 0.0484674 
-3.04266e-06 0.000913205 0.0356061 -3.04289e-06 0.000760956 0.024724 -3.0434e-06 0.000608707 0.0158211 
-3.04271e-06 0.000456456 0.00889742 -3.0421e-06 0.000304202 0.003953 -2.99109e-06 0.000151919 0.000987729 
0 0 0 0 0 0 6.05661e-10 0.000152014 0.000987868 
1.09468e-09 0.000304223 0.00395302 1.39259e-09 0.000456466 0.00889742 1.65092e-09 0.000608711 0.0158211 
1.9631e-09 0.000760958 0.0247239 2.32273e-09 0.000913205 0.0356061 2.70347e-09 0.00106545 0.0484674 
3.12684e-09 0.0012177 0.0633079 3.57197e-09 0.00136995 0.0801277 
Rotation 3 77 float
0 0 0 0 0 -1.82989e-05 0 0 7.41612e-06 
0 0 -2.57572e-06 0 0 7.93106e-07 0 0 -2.16255e-07 
0 0 5.02819e-08 0 0 -8.65087e-09 0 0 2.46211e-10 
0 0 7.02993e-10 0 0 -1.44934e-09 0 0 -4.41502e-16 
0 0 1.44934e-09 0 0 -7.02994e-10 0 0 -2.46212e-10 
0 0 8.65087e-09 0 0 -5.02819e-08 0 0 2.16255e-07 
0 0 -7.93106e-07 0 0 2.57572e-06 0 0 -7.41612e-06 
0 0 1.82989e-05 0 0 0 0 0 0 
0 0 -1.08633e-16 0 0 -2.02959e-16 0 0 -2.78105e-16 
0 0 -3.37316e-16 0 0 -3.81145e-16 0 0 -4.11329e-16 
0 0 -4.27613e-16 0 0 -4.36103e-16 0 0 -4.3955e-16 
0 0 0 0 0 0 0 0 0 
0 0 0 0 0 0 0 0 0 
0 0 0 0 0 0 0 0 0 
0 0 0 0 0 0 0 0 0 
0.00197548 -6.25464e-07 -1.16528e-07 0.0039549 -5.01153e-08 7.23188e-09 0.00593405 -1.79581e-08 1.02657e-08 
0.00791327 -5.7625e-09 3.35086e-09 0.00989249 -7.73417e-09 1.36921e-09 0.0118717 -6.30269e-09 1.99809e-10 
0.0138509 -6.27131e-09 -9.34538e-11 0.0158302 -5.64937e-09 -3.00188e-10 0.0178094 -5.30352e-09 -3.41463e-10 
0.0197886 -4.8804e-09 -3.85989e-10 0.0197886 -4.77823e-09 -3.78819e-10 0.0197886 -4.82652e-09 -4.53627e-10 
0.0178094 -5.15431e-09 -4.479e-10 0.0158302 -5.85586e-09 -4.36478e-10 0.0138509 -5.8966e-09 -7.17125e-10 
0.0118717 -6.80464e-09 -8.29036e-10 0.00989249 -6.02889e-09 -3.08467e-09 0.00791327 -8.20297e-09 -3.99454e-09 
0.00593405 5.33592e-09 -1.57562e-08 0.0039549 3.13366e-08 -1.62282e-08 0.00197547 5.95188e-07 9.1118e-07 
0 0 0 0 0 0 0.00197571 -1.65802e-08 4.72474e-08 
0.00395473 -9.26675e-09 1.84816e-08 0.00593403 -6.06461e-09 4.84114e-09 0.00791326 -6.95826e-09 1.33371e-09 
0.00989249 -6.96132e-09 4.62245e-10 0.0118717 -6.47988e-09 -6.30322e-11 0.0138509 -6.16779e-09 -2.2292e-10 
0.0158302 -5.6779e-09 -3.20739e-10 0.0178094 -5.31214e-09 -3.69663e-10 
Constraint%20Force 3 77 float
-0.0944683 -0.261978 0 0 0 0 0 0 0 
0 0 0 0 0 0 0 0 0 
0 0 0 0 0 0 0 0 0 
0 0 0 0 0 0 0 0 0 
0 0 0 0 0 0 0 0 0 
0 0 0 0 0 0 0 0 0 
0 0 0 0 0 0 0 0 0 
0 0 0 0.0944683 -0.261978 0 1.7211e-14 -0.476043 0 
0 0 0 0 0 0 0 0 0 
0 0 0 0 0 0 0 0 0 
0 0 0 0 0 0 0 0 0 
0 -1 0 0 0 0 0 0 0 
0 0 0 0 0 0 0 0 0 
0 0 0 0 0 0 0 0 0 
0 0 0 0 0 0 -0.0466189 -0.251787 3.33014e-05 
0 0 0 0 0 0 0 0 0 
0 0 0 0 0 0 0 0 0 
0 0 0 0 0 0 0 0 0 
0 0 0 0 0 0 0 0 0 
0 0 0 0 0 0 0 0 0 
0 0 0 0 0 0 0 0 0 
0 0 0 0 0 0 0 0 0 
0.0466189 -0.251786 3.05787e-05 3.29516e-09 -0.496427 -6.38801e-05 0 0 0 
0 0 0 0 0 0 0 0 0 
0 0 0 0 0 0 0 0 0 
0 0 0 0 0 0 
Constraint%20Moment 3 77 float
0 0 1.75258e-06 0 0 0 0 0 0 
0 0 0 0 0 0 0 0 0 
0 0 0 0 0 0 0 0 0 
0 0 0 0 0 0 0 0 0 
0 0 0 0 0 0 0 0 0 
0 0 0 0 0 0 0 0 0 
0 0 0 0 0 0 0 0 0 
0 0 0 0 0 -1.75258e-06 0 0 4.29901e-18 
0 0 0 0 0 0 0 0 0 
0 0 0 0 0 0 0 0 0 
0 0 0 0 0 0 0 0 0 
0 0 0 0 0 0 0 0 0 
0 0 0 0 0 0 0 0 0 
0 0 0 0 0 0 0 0 0 
0 0 0 0 0 0 -2.84531e-06 0.00198287 7.48109e-08 
0 0 0 0 0 0 0 0 0 
0 0 0 0 0 0 0 0 0 
0 0 0 0 0 0 0 0 0 
0 0 0 0 0 0 0 0 0 
0 0 0 0 0 0 0 0 0 
0 0 0 0 0 0 0 0 0 
0 0 0 0 0 0 0 0 0 
-2.85794e-06 -0.00198346 -3.73724e-07 5.70325e-06 -7.74434e-07 -2.98863e-07 0 0 0 
0 0 0 0 0 0 0 0 0 
0 0 0 0 0 0 0 0 0 
0 0 0 0 0 0 
Applied_Force 3 77 float
0 0 0 0 0 0 0 0 0 
0 0 0 0 0 0 0 0 0 
0 0 0 0 0 0 0 0 0 
0 0 0 0 0.25 0 0 0.5 0 
0 0.25 0 0 0 0 0 0 0 
0 0 0 0 0 0 0 0 0 
0 0 0 0 0 0 0 0 0 
0 0 0 0 0 0 0 0 0 
0 0 0 0 0 0 0 0 0 
0 0 0 0 0 0 0 0 0 
0 0 0 0 0 0 0 0 0 
0 0 0 0 0 0 0 0 0 
0 0 0 0 0 0 0 0 0 
0 0 0 0 0 0 0 0 0 
0 0 0 0 1 0 0 0 0 
0 0 0 0 0 0 0 0 0 
0 0 0 0 0 0 0 0 0 
0 0 0 0 0 0 0 0 0 
0 0.25 0 0 0.5 0 0 0.25 0 
0 0 0 0 0 0 0 0 0 
0 0 0 0 0 0 0 0 0 
0 0 0 0 0 0 0 0 0 
0 0 0 0 0 0 0 0 0 
0 0 0 0 0 0 0 0 0 
0 0 0 0 0 0 0 0 0 
0 0 0 0 0 0 
Applied_Moment 3 77 float
0 0 0 0 0 0 0 0 0 
0 0 0 0 0 0 0 0 0 
0 0 0 0 0 0 0 0 0 
0 0 0 0 0 0 0 0 0 
0 0 0 0 0 0 0 0 0 
0 0 0 0 0 0 0 0 0 
0 0 0 0 0 0 0 0 0 
0 0 0 0 0 0 0 0 0 
0 0 0 0 0 0 0 0 0 
0 0 0 0 0 0 0 0 0 
0 0 0 0 0 0 0 0 0 
0 0 0 0 0 0 0 0 0 
0 0 0 0 0 0 0 0 0 
0 0 0 0 0 0 0 0 0 
0 0 0 0 0 0 0 0 0 
0 0 0 0 0 0 0 0 0 
0 0 0 0 0 0 0 0 0 
0 0 0 0 0 0 0 0 0 
0 0 0 0 0 0 0 0 0 
0 0 0 0 0 0 0 0 0 
0 0 0 0 0 0 0 0 0 
0 0 0 0 0 0 0 0 0 
0 0 0 0 0 0 0 0 0 
0 0 0 0 0 0 0 0 0 
0 0 0 0 0 0 0 0 0 
0 0 0 0 0 0 
